 Gaussian 16, Revision C.01,
 Gaussian 16:  ES64L-G16RevC.01  3-Jul-2019

 ----------------------------------------------------
 #MP2/aug-cc-pvtz opt=tight pop=(full,chelpg) density
 ----------------------------------------------------

 -------------------
 Title Card Required
 -------------------
 Symbolic Z-matrix:
 Charge =  0 Multiplicity = 1

 SCF Done:  E(RHF) =  -187.656128471     A.U. after   10 cycles
 E2 =    -0.6412183695D+00 EUMP2 =    -0.18829734684067D+03
 SCF Done:  E(RHF) =  -187.705191025     A.U. after   10 cycles
 E2 =    -0.6163446193D+00 EUMP2 =    -0.18832153564456D+03
 SCF Done:  E(RHF) =  -187.706893435     A.U. after    8 cycles
 E2 =    -0.6147471504D+00 EUMP2 =    -0.18832164058489D+03
 SCF Done:  E(RHF) =  -187.706874573     A.U. after    5 cycles
 E2 =    -0.6147660449D+00 EUMP2 =    -0.18832164061784D+03
 Optimization completed.
    -- Stationary point found.

                         Standard orientation:
 ---------------------------------------------------------------------
 Center     Atomic      Atomic             Coordinates (Angstroms)
 Number     Number       Type             X           Y           Z
 ---------------------------------------------------------------------
      1          6           0        0.000000    0.000000    0.000000
      2          8           0        0.000000    0.000000    1.170226
      3          8           0        0.000000    0.000000   -1.170226
 ---------------------------------------------------------------------

 The electronic state is 1-SGG.
 Alpha  occ. eigenvalues --  -20.65556 -20.65552 -11.46677  -1.52668  -1.47372
 Alpha  occ. eigenvalues --   -0.80227  -0.74214  -0.71178  -0.71178  -0.54439
 Alpha  occ. eigenvalues --   -0.54439
 Alpha virt. eigenvalues --    0.04707   0.07300   0.07300   0.07887   0.16090
 Alpha virt. eigenvalues --    0.16382   0.16382   0.19451   0.19451   0.20594
 Alpha virt. eigenvalues --    0.22414   0.24668   0.24668   0.27868   0.27868

 Mulliken charges:
               1
     1  C    0.344569
     2  O   -0.172284
     3  O   -0.172284
 Sum of Mulliken charges =  -0.00000

 Dipole moment (field-independent basis, Debye):
    X=             -0.0000    Y=              0.0000    Z=              0.0000  Tot=              0.0000
 Quadrupole moment (field-independent basis, Debye-Ang):
   XX=            -15.0460   YY=            -15.0460   ZZ=            -19.1570
   XY=             -0.0000   XZ=              0.0000   YZ=             -0.0000

 ESP charges:
               1
     1  C    0.711669
     2  O   -0.355834
     3  O   -0.355834
 Sum of ESP charges =  -0.00000

 Normal termination of Gaussian 16 at Tue Jan 25 11:18:22 2022.
