 Gaussian 16, Revision C.01,
 Gaussian 16:  ES64L-G16RevC.01  3-Jul-2019

 ---------------------------------------
 #MP2/aug-cc-pvtz opt density pop=chelpg
 ---------------------------------------

 -------------------
 Title Card Required
 -------------------
 Symbolic Z-matrix:
 Charge =  0 Multiplicity = 1

 SCF Done:  E(RHF) =  -76.0600661839     A.U. after   10 cycles
 E2 =    -0.2682568318D+00 EUMP2 =    -0.76328323015709D+02
 SCF Done:  E(RHF) =  -76.0605173066     A.U. after    8 cycles
 E2 =    -0.2684589699D+00 EUMP2 =    -0.76328976276457D+02
 SCF Done:  E(RHF) =  -76.0603001745     A.U. after    8 cycles
 E2 =    -0.2686920624D+00 EUMP2 =    -0.76328992236863D+02
 Optimization completed.
    -- Stationary point found.

                         Standard orientation:
 ---------------------------------------------------------------------
 Center     Atomic      Atomic             Coordinates (Angstroms)
 Number     Number       Type             X           Y           Z
 ---------------------------------------------------------------------
      1          8           0        0.000000    0.000000    0.118189
      2          1           0       -0.000000    0.758025   -0.472754
      3          1           0       -0.000000   -0.758025   -0.472754
 ---------------------------------------------------------------------

 The electronic state is 1-A1.
 Alpha  occ. eigenvalues --  -20.56806  -1.35187  -0.71494  -0.58497  -0.51015
 Alpha virt. eigenvalues --    0.02937   0.04769   0.13589   0.15877   0.17517
 Alpha virt. eigenvalues --    0.18308   0.22714   0.24493   0.26539   0.30003
 Alpha virt. eigenvalues --    0.31014   0.36579   0.43737   0.46607   0.59920

 Mulliken charges:
               1
     1  O   -0.429288
     2  H    0.214644
     3  H    0.214644
 Sum of Mulliken charges =  -0.00000

 Dipole moment (field-independent basis, Debye):
    X=             -0.0000    Y=              0.0000    Z=             -1.8591  Tot=              1.8591
 Quadrupole moment (field-independent basis, Debye-Ang):
   XX=             -7.8531   YY=             -4.4596   ZZ=             -6.4748
   XY=              0.0000   XZ=              0.0000   YZ=             -0.0000

 ESP charges:
               1
     1  O   -0.675812
     2  H    0.337906
     3  H    0.337906
 Sum of ESP charges =  -0.00000

 Normal termination of Gaussian 16 at Tue Jan 25 11:18:00 2022.
